# vtk DataFile Version 3.0 
2D Unstructured Grid
ASCII
DATASET UNSTRUCTURED_GRID
POINTS 4138 float 
-1.416e-05 -1.416e-05 0.
-1.416e-05 1.416e-05 0.
1.416e-05 1.416e-05 0.
1.416e-05 -1.416e-05 0.
-1.056e-05 1.104e-05 0.
-1.356e-05 1.104e-05 0.
-7.56e-06 4.08e-06 0.
-1.131e-05 4.08e-06 0.
-8.1e-07 8.19e-06 0.
-4.56e-06 8.19e-06 0.
-2.25e-06 -1.59e-06 0.
-5.85e-06 -1.59e-06 0.
-9.09e-06 -5.49e-06 0.
-1.299e-05 -5.49e-06 0.
3.96e-06 2.25e-06 0.
5.1e-07 2.25e-06 0.
1.05e-05 8.4e-06 0.
7.2e-06 8.4e-06 0.
9e-06 -3.48e-06 0.
5.85e-06 -3.48e-06 0.
6e-07 -8.73e-06 0.
-2.7e-06 -8.73e-06 0.
7.17e-06 -1.059e-05 0.
4.32e-06 -1.059e-05 0.
-1.416e-05 -1.366316e-05 0.
-1.416e-05 -1.316632e-05 0.
-1.416e-05 -1.266947e-05 0.
-1.416e-05 -1.217263e-05 0.
-1.416e-05 -1.167579e-05 0.
-1.416e-05 -1.117895e-05 0.
-1.416e-05 -1.068211e-05 0.
-1.416e-05 -1.018526e-05 0.
-1.416e-05 -9.688421e-06 0.
-1.416e-05 -9.191579e-06 0.
-1.416e-05 -8.694737e-06 0.
-1.416e-05 -8.197895e-06 0.
-1.416e-05 -7.701053e-06 0.
-1.416e-05 -7.204211e-06 0.
-1.416e-05 -6.707368e-06 0.
-1.416e-05 -6.210526e-06 0.
-1.416e-05 -5.713684e-06 0.
-1.416e-05 -5.216842e-06 0.
-1.416e-05 -4.72e-06 0.
-1.416e-05 -4.223158e-06 0.
-1.416e-05 -3.726316e-06 0.
-1.416e-05 -3.229474e-06 0.
-1.416e-05 -2.732632e-06 0.
-1.416e-05 -2.235789e-06 0.
-1.416e-05 -1.738947e-06 0.
-1.416e-05 -1.242105e-06 0.
-1.416e-05 -7.452632e-07 0.
-1.416e-05 -2.484211e-07 0.
-1.416e-05 2.484211e-07 0.
-1.416e-05 7.452632e-07 0.
-1.416e-05 1.242105e-06 0.
-1.416e-05 1.738947e-06 0.
-1.416e-05 2.235789e-06 0.
-1.416e-05 2.732632e-06 0.
-1.416e-05 3.229474e-06 0.
-1.416e-05 3.726316e-06 0.
-1.416e-05 4.223158e-06 0.
-1.416e-05 4.72e-06 0.
-1.416e-05 5.216842e-06 0.
-1.416e-05 5.713684e-06 0.
-1.416e-05 6.210526e-06 0.
-1.416e-05 6.707368e-06 0.
-1.416e-05 7.204211e-06 0.
-1.416e-05 7.701053e-06 0.
-1.416e-05 8.197895e-06 0.
-1.416e-05 8.694737e-06 0.
-1.416e-05 9.191579e-06 0.
-1.416e-05 9.688421e-06 0.
-1.416e-05 1.018526e-05 0.
-1.416e-05 1.068211e-05 0.
-1.416e-05 1.117895e-05 0.
-1.416e-05 1.167579e-05 0.
-1.416e-05 1.217263e-05 0.
-1.416e-05 1.266947e-05 0.
-1.416e-05 1.316632e-05 0.
-1.416e-05 1.366316e-05 0.
-1.366316e-05 1.416e-05 0.
-1.316632e-05 1.416e-05 0.
-1.266947e-05 1.416e-05 0.
-1.217263e-05 1.416e-05 0.
-1.167579e-05 1.416e-05 0.
-1.117895e-05 1.416e-05 0.
-1.068211e-05 1.416e-05 0.
-1.018526e-05 1.416e-05 0.
-9.688421e-06 1.416e-05 0.
-9.191579e-06 1.416e-05 0.
-8.694737e-06 1.416e-05 0.
-8.197895e-06 1.416e-05 0.
-7.701053e-06 1.416e-05 0.
-7.204211e-06 1.416e-05 0.
-6.707368e-06 1.416e-05 0.
-6.210526e-06 1.416e-05 0.
-5.713684e-06 1.416e-05 0.
-5.216842e-06 1.416e-05 0.
-4.72e-06 1.416e-05 0.
-4.223158e-06 1.416e-05 0.
-3.726316e-06 1.416e-05 0.
-3.229474e-06 1.416e-05 0.
-2.732632e-06 1.416e-05 0.
-2.235789e-06 1.416e-05 0.
-1.738947e-06 1.416e-05 0.
-1.242105e-06 1.416e-05 0.
-7.452632e-07 1.416e-05 0.
-2.484211e-07 1.416e-05 0.
2.484211e-07 1.416e-05 0.
7.452632e-07 1.416e-05 0.
1.242105e-06 1.416e-05 0.
1.738947e-06 1.416e-05 0.
2.235789e-06 1.416e-05 0.
2.732632e-06 1.416e-05 0.
3.229474e-06 1.416e-05 0.
3.726316e-06 1.416e-05 0.
4.223158e-06 1.416e-05 0.
4.72e-06 1.416e-05 0.
5.216842e-06 1.416e-05 0.
5.713684e-06 1.416e-05 0.
6.210526e-06 1.416e-05 0.
6.707368e-06 1.416e-05 0.
7.204211e-06 1.416e-05 0.
7.701053e-06 1.416e-05 0.
8.197895e-06 1.416e-05 0.
8.694737e-06 1.416e-05 0.
9.191579e-06 1.416e-05 0.
9.688421e-06 1.416e-05 0.
1.018526e-05 1.416e-05 0.
1.068211e-05 1.416e-05 0.
1.117895e-05 1.416e-05 0.
1.167579e-05 1.416e-05 0.
1.217263e-05 1.416e-05 0.
1.266947e-05 1.416e-05 0.
1.316632e-05 1.416e-05 0.
1.366316e-05 1.416e-05 0.
1.416e-05 1.366316e-05 0.
1.416e-05 1.316632e-05 0.
1.416e-05 1.266947e-05 0.
1.416e-05 1.217263e-05 0.
1.416e-05 1.167579e-05 0.
1.416e-05 1.117895e-05 0.
1.416e-05 1.068211e-05 0.
1.416e-05 1.018526e-05 0.
1.416e-05 9.688421e-06 0.
1.416e-05 9.191579e-06 0.
1.416e-05 8.694737e-06 0.
1.416e-05 8.197895e-06 0.
1.416e-05 7.701053e-06 0.
1.416e-05 7.204211e-06 0.
1.416e-05 6.707368e-06 0.
1.416e-05 6.210526e-06 0.
1.416e-05 5.713684e-06 0.
1.416e-05 5.216842e-06 0.
1.416e-05 4.72e-06 0.
1.416e-05 4.223158e-06 0.
1.416e-05 3.726316e-06 0.
1.416e-05 3.229474e-06 0.
1.416e-05 2.732632e-06 0.
1.416e-05 2.235789e-06 0.
1.416e-05 1.738947e-06 0.
1.416e-05 1.242105e-06 0.
1.416e-05 7.452632e-07 0.
1.416e-05 2.484211e-07 0.
1.416e-05 -2.484211e-07 0.
1.416e-05 -7.452632e-07 0.
1.416e-05 -1.242105e-06 0.
1.416e-05 -1.738947e-06 0.
1.416e-05 -2.235789e-06 0.
1.416e-05 -2.732632e-06 0.
1.416e-05 -3.229474e-06 0.
1.416e-05 -3.726316e-06 0.
1.416e-05 -4.223158e-06 0.
1.416e-05 -4.72e-06 0.
1.416e-05 -5.216842e-06 0.
1.416e-05 -5.713684e-06 0.
1.416e-05 -6.210526e-06 0.
1.416e-05 -6.707368e-06 0.
1.416e-05 -7.204211e-06 0.
1.416e-05 -7.701053e-06 0.
1.416e-05 -8.197895e-06 0.
1.416e-05 -8.694737e-06 0.
1.416e-05 -9.191579e-06 0.
1.416e-05 -9.688421e-06 0.
1.416e-05 -1.018526e-05 0.
1.416e-05 -1.068211e-05 0.
1.416e-05 -1.117895e-05 0.
1.416e-05 -1.167579e-05 0.
1.416e-05 -1.217263e-05 0.
1.416e-05 -1.266947e-05 0.
1.416e-05 -1.316632e-05 0.
1.416e-05 -1.366316e-05 0.
1.366316e-05 -1.416e-05 0.
1.316632e-05 -1.416e-05 0.
1.266947e-05 -1.416e-05 0.
1.217263e-05 -1.416e-05 0.
1.167579e-05 -1.416e-05 0.
1.117895e-05 -1.416e-05 0.
1.068211e-05 -1.416e-05 0.
1.018526e-05 -1.416e-05 0.
9.688421e-06 -1.416e-05 0.
9.191579e-06 -1.416e-05 0.
8.694737e-06 -1.416e-05 0.
8.197895e-06 -1.416e-05 0.
7.701053e-06 -1.416e-05 0.
7.204211e-06 -1.416e-05 0.
6.707368e-06 -1.416e-05 0.
6.210526e-06 -1.416e-05 0.
5.713684e-06 -1.416e-05 0.
5.216842e-06 -1.416e-05 0.
4.72e-06 -1.416e-05 0.
4.223158e-06 -1.416e-05 0.
3.726316e-06 -1.416e-05 0.
3.229474e-06 -1.416e-05 0.
2.732632e-06 -1.416e-05 0.
2.235789e-06 -1.416e-05 0.
1.738947e-06 -1.416e-05 0.
1.242105e-06 -1.416e-05 0.
7.452632e-07 -1.416e-05 0.
2.484211e-07 -1.416e-05 0.
-2.484211e-07 -1.416e-05 0.
-7.452632e-07 -1.416e-05 0.
-1.242105e-06 -1.416e-05 0.
-1.738947e-06 -1.416e-05 0.
-2.235789e-06 -1.416e-05 0.
-2.732632e-06 -1.416e-05 0.
-3.229474e-06 -1.416e-05 0.
-3.726316e-06 -1.416e-05 0.
-4.223158e-06 -1.416e-05 0.
-4.72e-06 -1.416e-05 0.
-5.216842e-06 -1.416e-05 0.
-5.713684e-06 -1.416e-05 0.
-6.210526e-06 -1.416e-05 0.
-6.707368e-06 -1.416e-05 0.
-7.204211e-06 -1.416e-05 0.
-7.701053e-06 -1.416e-05 0.
-8.197895e-06 -1.416e-05 0.
-8.694737e-06 -1.416e-05 0.
-9.191579e-06 -1.416e-05 0.
-9.688421e-06 -1.416e-05 0.
-1.018526e-05 -1.416e-05 0.
-1.068211e-05 -1.416e-05 0.
-1.117895e-05 -1.416e-05 0.
-1.167579e-05 -1.416e-05 0.
-1.217263e-05 -1.416e-05 0.
-1.266947e-05 -1.416e-05 0.
-1.316632e-05 -1.416e-05 0.
-1.366316e-05 -1.416e-05 0.
-1.351908e-05 1.054622e-05 0.
-1.339745e-05 1.00659e-05 0.
-1.319842e-05 9.612158e-06 0.
-1.292742e-05 9.197362e-06 0.
-1.259184e-05 8.832828e-06 0.
-1.220084e-05 8.528501e-06 0.
-1.176509e-05 8.29268e-06 0.
-1.129646e-05 8.131799e-06 0.
-1.080774e-05 8.050247e-06 0.
-1.031226e-05 8.050247e-06 0.
-9.823544e-06 8.131799e-06 0.
-9.354914e-06 8.29268e-06 0.
-8.919156e-06 8.528501e-06 0.
-8.528155e-06 8.832828e-06 0.
-8.192578e-06 9.197362e-06 0.
-7.921579e-06 9.612158e-06 0.
-7.722548e-06 1.00659e-05 0.
-7.600916e-06 1.054622e-05 0.
-7.56e-06 1.104e-05 0.
-7.600916e-06 1.153378e-05 0.
-7.722548e-06 1.20141e-05 0.
-7.921579e-06 1.246784e-05 0.
-8.192578e-06 1.288264e-05 0.
-8.528155e-06 1.324717e-05 0.
-8.919156e-06 1.35515e-05 0.
-9.354914e-06 1.378732e-05 0.
-9.823544e-06 1.39482e-05 0.
-1.031226e-05 1.402975e-05 0.
-1.080774e-05 1.402975e-05 0.
-1.129646e-05 1.39482e-05 0.
-1.176509e-05 1.378732e-05 0.
-1.220084e-05 1.35515e-05 0.
-1.259184e-05 1.324717e-05 0.
-1.292742e-05 1.288264e-05 0.
-1.319842e-05 1.246784e-05 0.
-1.339745e-05 1.20141e-05 0.
-1.351908e-05 1.153378e-05 0.
-1.127792e-05 3.590527e-06 0.
-1.118222e-05 3.109429e-06 0.
-1.102455e-05 2.644937e-06 0.
-1.08076e-05 2.205e-06 0.
-1.053508e-05 1.797145e-06 0.
-1.021165e-05 1.42835e-06 0.
-9.842855e-06 1.104925e-06 0.
-9.435e-06 8.324047e-07 0.
-8.995063e-06 6.154517e-07 0.
-8.530571e-06 4.577781e-07 0.
-8.049473e-06 3.620818e-07 0.
-7.56e-06 3.3e-07 0.
-7.070527e-06 3.620818e-07 0.
-6.589429e-06 4.577782e-07 0.
-6.124937e-06 6.154518e-07 0.
-5.685e-06 8.324047e-07 0.
-5.277145e-06 1.104925e-06 0.
-4.90835e-06 1.42835e-06 0.
-4.584925e-06 1.797145e-06 0.
-4.312405e-06 2.205e-06 0.
-4.095452e-06 2.644937e-06 0.
-3.937778e-06 3.109429e-06 0.
-3.842082e-06 3.590527e-06 0.
-3.81e-06 4.08e-06 0.
-3.842082e-06 4.569473e-06 0.
-3.937778e-06 5.050571e-06 0.
-4.095452e-06 5.515063e-06 0.
-4.312405e-06 5.955e-06 0.
-4.584925e-06 6.362855e-06 0.
-4.90835e-06 6.73165e-06 0.
-5.277145e-06 7.055075e-06 0.
-5.685e-06 7.327595e-06 0.
-6.124937e-06 7.544548e-06 0.
-6.589429e-06 7.702222e-06 0.
-7.070527e-06 7.797918e-06 0.
-7.56e-06 7.83e-06 0.
-8.049473e-06 7.797918e-06 0.
-8.530571e-06 7.702222e-06 0.
-8.995063e-06 7.544548e-06 0.
-9.435e-06 7.327595e-06 0.
-9.842855e-06 7.055075e-06 0.
-1.021165e-05 6.73165e-06 0.
-1.053508e-05 6.362855e-06 0.
-1.08076e-05 5.955e-06 0.
-1.102455e-05 5.515063e-06 0.
-1.118222e-05 5.050571e-06 0.
-1.127792e-05 4.569473e-06 0.
-4.527918e-06 7.700527e-06 0.
-4.432222e-06 7.219429e-06 0.
-4.274548e-06 6.754937e-06 0.
-4.057595e-06 6.315e-06 0.
-3.785075e-06 5.907145e-06 0.
-3.46165e-06 5.53835e-06 0.
-3.092855e-06 5.214925e-06 0.
-2.685e-06 4.942405e-06 0.
-2.245063e-06 4.725452e-06 0.
-1.780571e-06 4.567778e-06 0.
-1.299473e-06 4.472082e-06 0.
-8.1e-07 4.44e-06 0.
-3.205268e-07 4.472082e-06 0.
1.605714e-07 4.567778e-06 0.
6.250629e-07 4.725452e-06 0.
1.065e-06 4.942405e-06 0.
1.472855e-06 5.214925e-06 0.
1.84165e-06 5.53835e-06 0.
2.165075e-06 5.907145e-06 0.
2.437595e-06 6.315e-06 0.
2.654548e-06 6.754937e-06 0.
2.812222e-06 7.219429e-06 0.
2.907918e-06 7.700527e-06 0.
2.94e-06 8.19e-06 0.
2.907918e-06 8.679473e-06 0.
2.812222e-06 9.160571e-06 0.
2.654548e-06 9.625063e-06 0.
2.437595e-06 1.0065e-05 0.
2.165075e-06 1.047286e-05 0.
1.84165e-06 1.084165e-05 0.
1.472855e-06 1.116508e-05 0.
1.065e-06 1.14376e-05 0.
[...]
POINT_DATA 4138
SCALARS sol float 1
LOOKUP_TABLE default
3e+08
3e+08
3e+08
3e+08
1e-10
1e-10
1e-10
9.500434e-06
1e-10
1e-10
1e-10
1e-10
1e-10
2.559492e-06
1e-10
5.516818e-05
1e-10
1e-10
1e-10
1e-10
1e-10
1e-10
1e-10
1.85671e-05
1.358077e+08
6.354723e+07
2.20463e+07
7345013
2835700
917565.5
288328.1
117204.3
38929.47
13583.02
4243.567
1697.945
500.9647
205.977
58.52267
18.46497
7.622535
2.642835
1.026491
0.2915161
0.113677
0.03534131
0.01396965
0.004261058
0.001731517
0.0005683383
0.0002617369
9.943264e-05
5.470602e-05
9.505609e-05
0.0002292724
0.000673625
0.002112909
0.005443393
0.01760495
0.05340859
0.1476341
0.4427695
1.240024
3.494276
10.58579
31.82774
83.74954
252.6394
846.9073
2043.132
6042.317
18944.05
58938.54
186933.9
549695.1
1876713
4622758
1.394738e+07
4.437525e+07
1.166704e+08
3e+08
3e+08
3e+08
3e+08
3e+08
3e+08
3e+08
3e+08
3e+08
3e+08
3e+08
3e+08
3e+08
3e+08
3e+08
3e+08
3e+08
3e+08
3e+08
3e+08
3e+08
3e+08
3e+08
3e+08
3e+08
3e+08
3e+08
3e+08
3e+08
3e+08
3e+08
3e+08
3e+08
3e+08
3e+08
3e+08
3e+08
3e+08
3e+08
3e+08
3e+08
3e+08
3e+08
3e+08
3e+08
3e+08
3e+08
3e+08
3e+08
3e+08
3e+08
3e+08
3e+08
3e+08
3e+08
3e+08
1.332136e+08
3.958987e+07
1.643565e+07
5441683
2220453
771639.7
321250.6
91697.51
40330.98
13727.45
5241.848
2166.818
882.1286
206.3248
101.1772
37.26316
11.61505
3.768755
1.513042
0.4835611
0.1797942
0.05400771
0.01713328
0.006940812
0.001704992
0.0005241843
0.0002144775
8.539968e-05
8.596816e-05
0.000167174
0.0004201088
0.001227672
0.003305632
0.009752569
0.02584665
0.07766082
0.2045729
0.5912687
1.484301
4.432765
14.0085
39.001
118.8942
351.8428
916.9099
2610.605
7515.964
19859.68
59046.2
157292.3
502344.3
1623470
4364953
1.295549e+07
3.460498e+07
1.056413e+08
3e+08
3e+08
3e+08
3e+08
3e+08
3e+08
3e+08
3e+08
3e+08
3e+08
3e+08
3e+08
3e+08
3e+08
3e+08
3e+08
3e+08
3e+08
3e+08
3e+08
3e+08
3e+08
3e+08
3e+08
3e+08
3e+08
3e+08
3e+08
3e+08
3e+08
3e+08
3e+08
3e+08
3e+08
3e+08
3e+08
3e+08
3e+08
3e+08
3e+08
3e+08
3e+08
3e+08
3e+08
3e+08
3e+08
3e+08
3e+08
3e+08
3e+08
3e+08
3e+08
3e+08
3e+08
3e+08
3e+08
1e-10
4.443218e-07
4.492828e-05
5.685263e-05
7.189335e-05
3.647775e-05
1.697836e-05
3.206605e-06
1e-10
1.342528e-05
9.50308e-06
1e-10
3.874255e-07
4.519236e-06
1e-10
9.13131e-06
1e-10
3.844383e-05
1e-10
1e-10
1e-10
4.407756e-06
1e-10
1e-10
1.405189e-05
1e-10
1e-10
3.071669e-06
1e-10
1e-10
2.379232e-05
2.42687e-06
1.150115e-05
1e-10
1e-10
1e-10
7.126513e-07
1e-10
1e-10
2.474336e-05
1e-10
1e-10
1e-10
1e-10
2.598661e-05
1.10148e-05
1.815669e-05
1.909264e-05
1.289121e-05
1.545954e-05
1e-10
3.194051e-05
1e-10
1e-10
1e-10
3.711675e-07
2.069757e-06
1e-10
5.281946e-06
2.846806e-07
4.211319e-06
1e-10
6.58761e-06
1e-10
2.877761e-06
7.291584e-06
2.214246e-06
1e-10
4.592993e-06
7.662771e-06
1.102816e-05
9.929192e-06
1e-10
1e-10
1e-10
8.023847e-06
1e-10
1e-10
1e-10
1e-10
2.862792e-06
6.026263e-06
2.267914e-05
1.461316e-05
1e-10
2.874694e-06
2.960255e-06
1.234468e-06
1e-10
2.654736e-07
1e-10
1.410414e-05
1.164835e-05
1e-10
2.44924e-05
1.648197e-05
7.105394e-06
1.825271e-05
5.137545e-06
1e-10
3.479856e-06
1e-10
1e-10
2.408184e-05
1e-10
1e-10
1e-10
1e-10
2.48296e-05
3.47627e-05
1e-10
1e-10
4.550785e-06
1.196931e-05
1e-10
1e-10
2.629625e-05
2.784238e-05
5.552767e-06
5.429656e-07
9.455027e-06
1e-10
1.187355e-05
3.435057e-06
5.964734e-06
7.245972e-06
1.760035e-05
1e-10
1e-10
1e-10
1e-10
1e-10
1e-10
2.150399e-06
1e-10
1e-10
1e-10
1.470524e-07
8.415135e-06
1.479651e-05
1e-10
2.005518e-05
1e-10
1e-10
5.961128e-06
1.498616e-05
5.385939e-06
1e-10
6.586162e-06
1e-10
1e-10
1.339484e-06
1.947039e-05
4.427088e-07
1.506999e-05
1e-10
1.29519e-05
1e-10
4.631185e-06
7.595602e-06
7.199689e-06
3.285242e-05
1e-10
1e-10
1e-10
6.004536e-06
1e-10
1e-10
1.310608e-05
2.617609e-05
1e-10
4.742512e-06
1e-10
1e-10
9.714453e-07
1e-10
1e-10
1e-10
1.932847e-06
1e-10
1e-10
4.983739e-06
5.672441e-05
1e-10
1e-10
2.846097e-06
1e-10
1.270993e-05
2.013096e-05
1.737456e-05
4.921671e-06
1e-10
4.435684e-06
1.774035e-06
2.759268e-05
1e-10
1e-10
1e-10
3.052144e-05
6.286509e-06
1e-10
1e-10
1e-10
4.365901e-06
1e-10
5.98902e-06
1e-10
5.730678e-06
1.332829e-05
1e-10
1e-10
9.255213e-06
1e-10
1e-10
1.537983e-06
1.921446e-06
1e-10
1e-10
1.897984e-05
2.677893e-05
1e-10
1e-10
3.275758e-05
1e-10
1e-10
1e-10
1e-10
1.17137e-06
3.66345e-08
1e-10
1e-10
2.876245e-05
1.204715e-05
9.655087e-09
8.734676e-06
2.488748e-06
1e-10
3.9242e-06
1e-10
1e-10
1e-10
3.725396e-06
8.877703e-06
9.57923e-06
9.784196e-06
1e-10
1.345665e-05
2.551173e-06
1.590997e-05
1e-10
7.163547e-06
4.05381e-06
1e-10
1e-10
1e-10
1e-10
1.314151e-05
1e-10
1.022747e-05
1e-10
2.588798e-07
1e-10
5.7053e-06
1.188303e-05
1e-10
2.679231e-05
1e-10
1e-10
1e-10
1e-10
2.324598e-08
1e-10
1e-10
1.473469e-05
1e-10
9.893141e-06
7.070207e-06
5.980338e-07
4.855483e-06
1.283154e-05
4.106495e-05
2.02393e-06
1.916419e-05
4.548672e-06
2.494869e-06
3.757043e-05
2.65871e-08
1.167244e-06
1e-10
1e-10
5.801407e-06
1e-10
5.494983e-06
2.18413e-05
1e-10
5.580988e-06
1e-10
1.276458e-06
1e-10
1e-10
7.465642e-06
1e-10
1e-10
7.364039e-06
1e-10
7.197636e-06
1e-10
1.291995e-06
1e-10
1.363564e-05
3.160236e-06
1e-10
1e-10
1e-10
1e-10
5.395207e-06
2.870728e-06
1e-10
1e-10
1e-10
1e-10
2.10148e-06
1e-10
1e-10
1e-10
8.613737e-06
8.777327e-06
6.572721e-06
1e-10
1e-10
1e-10
1e-10
1e-10
1e-10
4.285858e-06
1e-10
1.631041e-05
6.749952e-06
1e-10
1e-10
2.568504e-05
5.868175e-06
4.361365e-05
1.994022e-05
1e-10
2.80924e-06
2.915112e-06
1e-10
3.53779e-06
4.433757e-06
1.479872e-05
1e-10
1e-10
4.008389e-06
1.168099e-05
1e-10
1e-10
1e-10
1e-10
3.956389e-07
1e-10
1.84222e-06
1e-10
1.597121e-06
1e-10
1e-10
2.023789e-06
7.782226e-06
5.189717e-06
4.600327e-06
1e-10
1e-10
5.962034e-06
4.532617e-06
1e-10
2.722193e-06
2.963827e-06
8.450887e-07
2.776542e-07
1e-10
2.199758e-06
1e-10
1e-10
7.285563e-06
3.773229e-06
1e-10
3.473721e-06
3.816943e-07
1e-10
9.954208e-07
3.384655e-06
1e-10
1.564853e-06
6.903332e-06
7.082558e-07
1e-10
3.919074e-06
4.338888e-05
1.732831e-06
8.264388e-06
1e-10
1e-10
1e-10
6.827112e-07
3.144491e-06
1e-10
1e-10
1e-10
1e-10
1e-10
1.080491e-05
3.068324e-06
1.099385e-05
1e-10
9.813313e-07
1e-10
1e-10
1e-10
1e-10
9.24106e-06
7.559835e-06
8.101121e-06
6.123409e-06
8.513225e+07
1e-10
1.045587e+08
4879.212
1.078298e-06
743.7448
36.28169
1.09101e+08
1e-10
1389.398
1.20473e+08
1.754616e-06
3.917877e-06
8.557828e+07
308.7063
41.67052
3.69929e-07
2021.367
1649.385
1e-10
1.060574e-05
309.1443
9.732751e+07
0.4956926
8.753113e+07
1759830
8298.723
417.8104
880.0361
36.65018
9.050242e+07
158805.3
0.206762
6.894546
3.031731e-06
1e-10
5.286429e-07
7378.3
9.217052e-06
3.478631
2.25345e-06
1e-10
29566.02
13021.45
5.003596e-06
63808.33
1.084004e+08
1.003943e+08
0.005891306
0.003192431
93.8322
1.152941e-06
6232.818
0.0003979608
402.1954
0.01791817
168.6361
1e-10
1e-10
1e-10
7.799023e+07
0.1073625
240490
27.80272
1.068188e+08
4.345357
1e-10
1.136217e-05
1.198821e+08
0.000285225
3.30289e-06
0.0005966396
0.006716305
57195.28
1.69514e-05
886711.2
0.05234822
141.7906
0.002961568
0.4000155
0.04214533
1.093699e-06
1e-10
0.000176595
1.470331e-06
3222050
98356.64
4.282351
15951.17
0.007500452
1.566242e-06
1e-10
1.691588
17.90621
8.009859e+07
750910.9
7.726102e+07
1.623101e-07
1.006329e+08
51781.37
1.034285e+08
9.960501e+07
8.745908e+07
820005
0.2175866
1.093141e+08
2.373947e-06
8.724842e+07
1.332976
1.07965e+08
1.631799e+07
1.335335e+08
347.9183
8.971038e+07
2.061651
3.97898
6.920599e-06
3.616013e-06
1.081936e+08
1e-10
1e-10
9.905341e+07
0.0005498847
1e-10
7.578189e-05
1.124355e+08
1.158686e+08
1e-10
0.000162629
9.723546e+07
1.098435e+08
1e-10
1117854
1.096492e+08
2062230
0.001590333
6.887335e-06
4.401222e-06
0.05214508
34.20308
9.260135e-05
0.008431146
8.970798e-06
655687.3
764981.3
882614.8
375914.2
1e-10
996751.4
0.01029689
5.89452e-06
1e-10
575466
1e-10
1342739
0.003750048
7.906182
1e-10
0.03703687
1e-10
1.179834e+08
0.001329006
7.925658e+07
2.518312
2.316975e-07
29.40093
0.04081189
1e-10
1e-10
0.07228037
1.16707e+08
1e-10
10775.17
0.02563456
7.994386e+07
8.706239e+07
1e-10
0.003371712
0.003613588
425.8909
8.177062e+07
0.03382615
1e-10
3.027336e-06
1.034217e+08
9.380908e-05
1e-10
1e-10
2.236135e-06
0.0001311279
0.0006232857
1e-10
0.6874602
1e-10
2.031856e+07
1987181
2.630303e-07
1.851101e-06
16216.57
1e-10
1e-10
1e-10
2265.481
0.0139022
5.926466e-06
1e-10
0.02796918
6.299977
3796079
154502.2
0.3105396
1e-10
0.001461707
1e-10
1.63039e-06
1.4112e-06
1.823125e+07
1e-10
1e-10
1e-10
1e-10
1e-10
1e-10
3.564659e-08
5.69737e-09
1e-10
2.849368e-09
1e-10
4.74164e-08
1.212923e-08
7.405117e-09
1e-10
5.148017e-09
1.29708e-08
9.507608e-09
1e-10
1.298865e-08
4.467284e-09
1e-10
1.039833e-08
2.362812e-08
4.000613e-08
1.176482e-08
4.122584e-09
1.923506e-08
3.313317e-08
1e-10
7.87473e-08
1e-10
1e-10
5.102901e-08
8.014617e-08
4.41001e-08
1.702293e-07
1.246146e-07
1.639431e-07
1.031709e-07
1e-10
1e-10
5.55486e-08
5.386477e-07
1.158602e-07
896153
1358565
506121.9
1733342
3707516
4163392
1297377
6421867
2225005
9076947
13.19282
30.57636
44.06233
77.88995
181.4878
122.4529
269.8854
158.4668
47.99694
37.91704
18.9534
423.273
1539.46
20.22455
36.6913
12.64588
11.14911
877.6236
4139.514
710.9705
4661.929
13202.58
9334.818
37375.24
28277.76
90836.38
110740.9
277768.1
216412.6
389884.3
374895.1
846030.3
1894251
4.704235
5.380109
8.53699
3.499142
109.497
1948526
120049.4
323100.3
549441.9
696169.2
22.5816
370.0486
5413490
1990.721
652.4199
7519992
178930.4
0.7042773
4.867005
1.553021
1.725147
0.7531866
0.2721719
0.2910056
2215469
2603760
1759606
0.598076
5.06603
1.519577
2.366293
4717831
934.1542
3807.358
10759.67
4635639
69301.86
4.242342e-07
1e-10
1e-10
91.66322
886.8916
322.3079
1415.879
695.3381
2321.818
4595.023
9391.41
16993.16
31974.23
57068.14
95781.83
237257.3
270435.8
559764
602759.2
639269.8
2471947
1611798
23243.58
227828.8
632961.9
1363412
2478404
2970567
1669292
7186172
1.140799e+07
3487216
465.5472
208.3735
2700227
6044.796
511235.6
41.35797
1.254019e+07
80.18558
2488385
5796611
2135773
1.061543e+07
1.623047e+07
52.51827
0.1263001
1.036283
2.50448
1.733138
2.725787
1.925676
4.615865
2.030387
21.20278
0.3982999
0.6942474
0.07926574
0.1983219
0.2856875
0.2119365
570435.8
14.27726
9378512
1.384296e+07
4667741
1.397445e-07
1e-10
2.080673e-07
1e-10
1e-10
4.210436e-07
9.088699e-07
1.128505e-06
2.092882e-07
1.548814e-07
9.094866e-08
2.451037e-08
4.79351e-09
3.502028e-09
4.626455e-08
1.365426e-08
4.761422e-08
3.979411e-08
1.494585e-07
3.490671e-08
5.034228e-08
1e-10
2.661608e-07
6.702189e-07
1.038139e-07
1.547732e-06
3.662834e-06
6.611621e-08
1.385217e-07
2.976905e-08
7.749558e-09
1.123033e-08
1.280467e-05
1.11875e-05
2.758102e-07
9.404288e-07
4.195124e-07
2.130049e-07
1.32136e-07
5.251098e-06
1.660789e-05
3.75743e-05
1.058544e-06
1.686497e-06
3.573397e-06
3.818021e-08
1e-10
1.429118e-07
4.390445e-07
3.749893e-06
1.388871e-05
2.572986e-07
4.566333e-05
2.420424e-07
1e-10
2.621214e-08
1.528013e-06
1.251325e-07
1e-10
4.305484e-05
0.0002308142
1e-10
9.539017e-06
0.0001947313
2.662658e-06
4.239199e-05
1.368697e-05
1.346141e-05
5.803123e-08
1.3731e-07
1.626083e-06
2.002826e-06
0.000661069
0.001420227
2.0377e-07
3.902222e-07
2.388826e-06
5.62313e-06
1.527624e-05
2.53859e-07
3.154758e-07
3.000669e-07
2.232246e-06
3.606354e-07
1e-10
1e-10
0.08839736
0.4733003
0.6960764
1.690713e-05
4.897098e-06
1.174135e-06
0.09975336
0.1795888
0.00434924
0.009314652
0.003754948
0.02250638
0.147168
0.0001595069
220.6212
1.731389e-05
0.000196082
1e-10
1.351201e-07
7.501971e-08
6.780992
31.53336
57.35793
92.51779
177.3666
273.798
1605.433
68.44046
414.6666
2340.536
5995.014
12844.39
14756.42
17906.4
38541.14
67608.4
74268.23
112599.7
228264.3
306691.2
860.1307
234663.5
265.9268
82446.72
2102440
333263.7
67296.57
239756.8
150.0457
143665.5
474582.4
1085631
1455687
912757.3
2135348
609543.3
2846819
421965.6
342607.7
841195.5
5984524
633061.2
7927033
170.9428
7.714059
2.634051
0.5097826
0.3680909
0.2178169
0.2765353
0.5779995
1.473415
1.162512
3.197338
0.3430121
0.08486333
0.104822
0.02082204
0.1659891
0.08392119
8135873
309893.5
61.61931
79.3686
306610.5
387.2502
3830.163
7039319
508484.9
25622.39
6874844
580212.9
0.02531934
238891.6
654663.8
4663875
99332.52
798091.6
3509757
48033.45
199.9659
0.01817117
5.344663
2.177386e+07
6822220
2.162704e+07
4875795
0.005206089
0.00645576
1.261984e+07
0.05737902
1576064
6168175
3843877
1.093921e+07
5912509
2.519353e+07
0.01752037
76976.35
1.318521e+07
7732555
1307361
8148838
0.06343424
0.01289007
0.003903924
0.001119906
0.0007347301
0.4451295
0.09750971
0.01379492
0.05269013
0.2604759
0.1024465
0.3965016
0.830151
1.423131
2.509526
4.605941
8.954134
19.87245
50.8417
36.13486
44.13591
128.4068
233.3792
578.1735
1149.086
2032.164
4187.389
7189.643
16893.02
17210.92
6875.375
72516.29
9759.283
90305.45
22384.12
381243.2
7483.433
32147.1
19224.88
50818.78
14997.32
77480.75
156366.6
286268.7
118422.3
635255.5
285130.5
977496.8
334942.2
1026251
337707.9
611989.8
182178.3
573597.3
209675.5
523318.3
166908.8
555405.7
225967.4
582836.3
115671.4
64911.9
34463.88
127256.7
17572.85
6610.502
66378.43
561191.6
2474459
184.0851
164390.3
4339031
1377060
5481.794
2003.763
17801.92
27628.55
248572.4
34515
746086.7
1e-10
8422.857
103283.1
1530567
75636.57
688.6777
1503.772
319.1236
443.4067
295882.4
1202364
2347.453
194.6079
6222.128
280565.9
1394100
833542.4
1761521
523791.9
3337.053
2501.129
125.9285
125.9601
7984.216
3011.97
1121372
3108210
3662814
4.048239
6991492
1231200
785.9504
0.02038408
0.03207646
0.007070499
1437200
3371999
9.234393
905.4224
1.741518e+07
1e-10
17.20146
2923517
903091.8
3047519
1163417
1256654
1935313
5135131
2.036064e+07
1025.722
5949.163
1285057
2764933
197.1292
6.341714e-08
1e-10
1.007114e-07
6.260949e-07
1e-10
1.353986e-05
6.884027e-07
3.598723e-07
1e-10
21347.87
57933.92
859.2061
988.1998
2515.555
697.8778
1e-10
1e-10
229427.6
1242142
3514296
3349358
1.061512e+07
9400620
4.012184e+07
3.357928e+07
2728543
546764.7
1595659
737665.7
4657380
2207965
8219193
2.972041e+07
3.271713e+07
5892.199
0.001085587
0.00920025
38433.32
1e-10
1138719
4413787
1914944
1484767
1e-10
1.505184e-05
4.547552e-06
1.083704e-06
1.285759e-06
1e-10
7.686714e-07
1e-10
1e-10
3.012703e-07
1.277347e-06
2.751124e-05
0.0001117259
7.463731e-07
1e-10
4188268
9807144
2.308708e+07
0.0006720248
1.034041e-06
1e-10
1e-10
1e-10
1e-10
1e-10
1.901641e-07
2.741255e-07
4.542258e-08
451937.1
1.132119e-06
2.220802e-06
1.392139e-06
1e-10
1.051201e-06
1e-10
1e-10
1e-10
1e-10
1e-10
0.0007271821
1e-10
1.198806e-07
1e-10
4.159322e-07
4.758436
0.9260346
13.83402
2.008764e-06
4.408479
12.25227
172.2034
1e-10
1e-10
1e-10
1e-10
1e-10
1.519015e-06
3.787522e-07
6.02886e-07
1.371036e-07
1.288373e-06
1326.604
1191.172
4687.876
15578.15
9.82219e-06
4.438564e-06
6.213981e-06
6.487573e-06
2.718191e-06
3.983443e-06
1.153894e-06
1.652128e-06
1.506039e-05
2.873919e-06
5.349465e-07
8.001928e-07
3.048575e-07
2.139897e-07
3.410716e-07
1.717825e-07
4.915154e-07
4.444079e-07
7.731409e-05
1e-10
6.890832e-05
0.0002009388
0.0001698339
0.0007249356
0.0005271811
0.0007915683
0.00173066
8.007028e-05
0.002118476
0.005698083
0.003514404
0.01352526
0.01806728
0.04971208
1.428222e-06
1.146537e-06
2.424996e-06
1.950967e-06
1e-10
2.928848e-06
2.820377e-06
0.03374911
0.0108355
1.592049e-06
8.31371e-07
4.350684e-07
2.862619e-07
6.364969e-08
4.760926e-09
21.74166
3786.161
25786.15
11341.18
26878.53
6.044569e-08
0.0008035983
0.001039889
82832.13
734489.5
2626496
3023695
9151712
941705.3
8572133
3338398
1e-10
2589159
4042814
8432569
5864248
2230173
4778029
2.484397e-07
0.02259915
1.140123e-07
0.1834486
0.0002429457
0.0003269033
56908.53
2.523825
1e-10
26.79425
0.2824963
38.25084
165.7181
0.1529746
0.1318811
1e-10
1.802717e-06
8.489733e-06
1e-10
301.5547
376.2132
5920.914
5815.532
15.76705
1904.64
5446.582
1790.211
3933.467
3.380695e+07
2.656318e+07
1008.445
3.760672e-07
25637.93
4.656307e-06
2.756372e+07
2.106864e+07
8259.97
7.5386e-07
0.00286082
2.877435e+07
7.835786e-07
8365493
1e-10
0.01236545
1.355866e+07
1e-10
1e-10
355.2313
5.277723
1.384461e+08
3528.142
8.858361e-06
6.528431
85.74676
1e-10
1e-10
0.0004975035
0.001522319
1e-10
8.678315e-05
1e-10
106845.4
1.556984e-07
0.2119414
757876.1
150054.3
2.856662e-07
1e-10
4.68164e-06
90.44917
0.0002069133
1e-10
7.497226e-07
4.242084e-07
5.857477e-05
1e-10
1e-10
1.943143
0.0001041448
2.558994e+07
2718413
450803
310834.7
425324.5
90516.44
2731602
218286.5
37194.79
838.5849
1338.59
3.643877e+07
951388.3
1.59406
8660658
2.124957e-06
1e-10
1e-10
0.005430189
2.369967e-07
212.5492
6.066405e-07
4.326421e+07
189279.6
22.37008
0.02332953
0.5270788
0.002336069
0.000954759
855.6536
91.21752
2346196
2.248803e+07
49.11077
0.07450534
0.1559833
0.008131398
3816959
1.085991e-05
3.113595e-07
0.002482614
128409.6
0.05373015
149.6748
1.035437e-05
0.0629239
906356.1
5.968e-07
0.7742087
22873.31
0.0006787621
0.0006646825
3.419034e+07
2.91685e+07
1e-10
1e-10
5.406934e-07
429579
2.72382e-07
845.9066
2.845304e-07
4307.512
1e-10
247108.4
0.01093045
1e-10
3.388658e+07
2.880686
0.0002215845
1.468888e-06
3.159773e+07
439992.6
1356.19
20032.04
0.056104
848109.9
2163292
6877.8
1e-10
2507.697
1e-10
2.023015e+07
1.243736e+07
2.225499e-07
1.52413
1.158199e+07
1.808142e+07
3.029618e+07
3760584
0.3731465
0.3742393
48089.47
14486.41
291657.8
10507.2
0.1751156
0.5133136
2.404893e+07
1.787212e+07
3.34227e+07
5.518744e+07
3.528366e+07
1.069574e+07
3.621631e+07
1.50555e+07
3.535181e-06
99206.09
3.89753e-07
2115.731
3351.072
5115.608
0.0164406
5.285036e+07
1.889038e+07
1.85096e+07
4.182822e-07
1.453126e-06
0.02050168
5896612
1558.589
0.002713742
414691.3
664678.3
5914900
64158.36
0.3724607
0.03626515
1e-10
14.8597
4.170964
8.377582
7.986611
0.000321858
4.427155
4.196304e-07
4.837499e-08
1.076482e-07
8.108194e-05
1656.389
4.789841e+07
2.980384e-07
7.071517e+07
5.57604e+07
3.636091e+07
2159417
1.048397e+07
3190513
2.154456e-08
8.123265e-05
2.113824e-05
3.997482e-05
1.903375e+07
5.819265e+07
3.425025e+07
1997335
7732392
7128480
2.028486e+07
1.946703e+07
7451396
1.637956e+07
1e-10
3.412504e+07
6800255
1.070135e+07
2.837786e+07
1e-10
0.006954347
31.25999
1430148
4727530
1.133031e-06
0.0002514607
3403740
5348.288
6.272409e+07
1.553525e+07
0.002267948
0.0002772176
297368.6
6.028319e+07
2.395315e+07
59605.37
15186.1
4.581559e-05
1.097938e-05
3.146786e-08
47.18987
1e-10
5.527963e+07
6.592744e+07
1.354641e-08
290.728
577.3208
140.9815
84.7229
2.562809e-05
1.103638e-05
2.625416e-06
1e-10
242866.5
2491.574
6733472
69122.12
6378442
3.413232e-08
1.065111e+07
1.590603e+07
1.406451e+07
7.391357e+07
14769.23
32952.7
92228.07
152533.1
266444.6
400768
1e-10
3753484
1628.434
4.96548e+07
44067.48
1.224231
28608.05
36778.36
8789.824
1308155
384558.2
571686.8
1757718
1.060393e+07
3937.481
2.020947e+07
253764.8
1.028336e-07
0.002327338
45374.34
4017.195
6.42494e+07
0.04754526
18333.87
64.81788
1368.286
33.46525
96962.11
19284.46
8.129235e-09
2.562256e-08
1e-10
1e-10
653.836
9.15145
76.69002
1e-10
1.203535e-08
24.54282
2.020491e+07
2919419
1035.778
1.783411e-08
19567.07
116777.1
1e-10
3.821625e-06
5.137275e-08
0.002620593
7079092
0.2656229
1.082952e-05
14.4361
2210.454
1e-10
104710.7
4.870314e-08
5336.988
1.031333e-08
5.42524e-08
9344527
1e-10
43190.93
88611.08
162784.4
2.047555e-05
1593543
19656.5
22.83517
1474597
1.707461e-06
7.158524e-06
4317079
0.0001184612
2.111015
2.497208e-07
10341.67
9.911397e-06
8.008351e-08
911.5553
1.036608e-05
77071.46
24102.09
1538.781
0.1040458
1.082442e-06
1123.27
314717.2
5056601
1e-10
1.292976e-06
0.0006242635
0.001684165
1.763609e-08
1192718
0.0006091551
3.752037
2.219374e-07
17.18527
1.265642e-05
1e-10
8.321247e+07
83.2658
2.035386
0.06942904
0.0002865204
0.0004196958
115.4005
13.38432
0.009653995
2.689042
41.7323
0.0001550472
1.81087e-06
1.779751e+07
1e-10
5917.964
0.0001054356
1.270354e-07
0.1211751
1e-10
1.424193e-06
5.589649e+07
0.04757848
13.0961
4.882124
53287.72
47.72311
2481497
1e-10
1e-10
1e-10
1.048265e-08
3593971
2319.343
1e-10
0.00478451
1.786544e+07
7261.687
1e-10
0.4049986
0.5938945
133.0832
2.917003e-07
2.36915e-07
2.654618e-05
1.125855e-07
1.43046e+07
630288.6
0.01605836
0.4597721
1e-10
87571.62
1e-10
1.081862e-06
94446.63
4.357416e-08